<?xml version="1.0" encoding="UTF-8"?>

<!-- generated on Fri 08 Nov 2019 14:53:13 CET by Eclipse SUMO GUI Version v1_3_1+0792-a0da2ffa4d
<configuration xmlns:xsi="http://www.w3.org/2001/XMLSchema-instance" xsi:noNamespaceSchemaLocation="http://sumo.dlr.de/xsd/sumoConfiguration.xsd">

    <input>
        <net-file value="network.net.xml"/>
        <route-files value="network.rou.xml"/>
    </input>

    <output>
        <tripinfo-output value="tripinfo.xml"/>
    </output>

    <time>
        <begin value="0"/>
        <end value="50"/>
    </time>

    <processing>
        <collision.check-junctions value="true"/>
    </processing>

    <traci_server>
        <remote-port value="59879"/>
    </traci_server>

    <gui_only>
        <gui-settings-file value="network.settings.xml"/>
    </gui_only>

</configuration>
-->

<tripinfos xmlns:xsi="http://www.w3.org/2001/XMLSchema-instance" xsi:noNamespaceSchemaLocation="http://sumo.dlr.de/xsd/tripinfo_file.xsd">
</tripinfos>
