<?xml version="1.0" encoding="UTF-8"?>

<!-- generated on Fri 08 Nov 2019 18:00:04 CET by Eclipse SUMO GUI Version v1_3_1+0792-a0da2ffa4d
<configuration xmlns:xsi="http://www.w3.org/2001/XMLSchema-instance" xsi:noNamespaceSchemaLocation="http://sumo.dlr.de/xsd/sumoConfiguration.xsd">

    <input>
        <net-file value="network.net.xml"/>
        <route-files value="network.rou.xml"/>
    </input>

    <output>
        <tripinfo-output value="tripinfo.xml"/>
    </output>

    <time>
        <begin value="0"/>
        <end value="50"/>
    </time>

    <processing>
        <collision.check-junctions value="true"/>
    </processing>

    <traci_server>
        <remote-port value="36091"/>
    </traci_server>

    <gui_only>
        <gui-settings-file value="network.settings.xml"/>
    </gui_only>

</configuration>
-->

<tripinfos xmlns:xsi="http://www.w3.org/2001/XMLSchema-instance" xsi:noNamespaceSchemaLocation="http://sumo.dlr.de/xsd/tripinfo_file.xsd">
    <tripinfo id="veh2" depart="0.00" departLane="rightBottom_to_middleBottom_0" departPos="5.10" departSpeed="0.00" departDelay="0.00" arrival="16.00" arrivalLane="middleBottom_to_leftBottom_0" arrivalPos="39.60" arrivalSpeed="10.86" duration="16.00" routeLength="88.50" waitingTime="0.00" waitingCount="0" stopTime="0.00" timeLoss="9.71" rerouteNo="0" devices="tripinfo_veh2" vType="fast" speedFactor="1.08" vaporized=""/>
    <tripinfo id="veh1" depart="0.00" departLane="leftBottom_to_middleBottom_0" departPos="5.10" departSpeed="0.00" departDelay="0.00" arrival="19.00" arrivalLane="middleBottom_to_rightBottom_0" arrivalPos="39.60" arrivalSpeed="9.06" duration="19.00" routeLength="88.50" waitingTime="0.00" waitingCount="0" stopTime="0.00" timeLoss="12.48" rerouteNo="0" devices="tripinfo_veh1" vType="slow" speedFactor="1.01" vaporized=""/>
    <tripinfo id="vehicles1.0" depart="6.00" departLane="leftBottom_to_middleBottom_0" departPos="5.10" departSpeed="0.00" departDelay="5.00" arrival="21.00" arrivalLane="middleBottom_to_rightBottom_0" arrivalPos="39.60" arrivalSpeed="13.46" duration="15.00" routeLength="88.50" waitingTime="0.00" waitingCount="0" stopTime="0.00" timeLoss="8.23" rerouteNo="0" devices="tripinfo_vehicles1.0" vType="DEFAULT_VEHTYPE" speedFactor="1.03" vaporized=""/>
    <tripinfo id="veh0" depart="0.00" departLane="middleTop_to_middleBottom_0" departPos="5.10" departSpeed="0.00" departDelay="0.00" arrival="23.00" arrivalLane="middleBottom_to_leftBottom_0" arrivalPos="39.60" arrivalSpeed="7.91" duration="23.00" routeLength="79.13" waitingTime="0.00" waitingCount="0" stopTime="0.00" timeLoss="17.35" rerouteNo="0" devices="tripinfo_veh0" vType="normal" speedFactor="1.06" vaporized=""/>
    <tripinfo id="vehicles1.1" depart="9.00" departLane="leftBottom_to_middleBottom_0" departPos="5.10" departSpeed="0.00" departDelay="4.00" arrival="23.00" arrivalLane="middleBottom_to_rightBottom_0" arrivalPos="39.60" arrivalSpeed="13.21" duration="14.00" routeLength="88.50" waitingTime="0.00" waitingCount="0" stopTime="0.00" timeLoss="7.19" rerouteNo="0" devices="tripinfo_vehicles1.1" vType="DEFAULT_VEHTYPE" speedFactor="1.05" vaporized=""/>
    <tripinfo id="vehicles2.0" depart="4.00" departLane="rightBottom_to_middleBottom_0" departPos="5.10" departSpeed="0.00" departDelay="2.00" arrival="25.00" arrivalLane="middleBottom_to_leftBottom_0" arrivalPos="39.60" arrivalSpeed="10.83" duration="21.00" routeLength="88.50" waitingTime="0.00" waitingCount="0" stopTime="0.00" timeLoss="12.65" rerouteNo="0" devices="tripinfo_vehicles2.0" vType="DEFAULT_VEHTYPE" speedFactor="0.83" vaporized=""/>
    <tripinfo id="veh3" depart="0.00" departLane="leftTop_to_middleTop_0" departPos="8.10" departSpeed="0.00" departDelay="0.00" arrival="29.00" arrivalLane="middleBottom_to_rightBottom_0" arrivalPos="39.60" arrivalSpeed="9.66" duration="29.00" routeLength="129.92" waitingTime="1.00" waitingCount="1" stopTime="0.00" timeLoss="18.71" rerouteNo="0" devices="tripinfo_veh3" vType="emergency" speedFactor="0.94" vaporized=""/>
    <tripinfo id="vehicles1.2" depart="12.00" departLane="leftBottom_to_middleBottom_0" departPos="5.10" departSpeed="0.00" departDelay="4.00" arrival="31.00" arrivalLane="middleBottom_to_rightBottom_0" arrivalPos="39.60" arrivalSpeed="11.96" duration="19.00" routeLength="88.50" waitingTime="2.00" waitingCount="1" stopTime="0.00" timeLoss="11.45" rerouteNo="0" devices="tripinfo_vehicles1.2" vType="DEFAULT_VEHTYPE" speedFactor="0.89" vaporized=""/>
    <tripinfo id="vehicles2.1" depart="16.00" departLane="rightBottom_to_middleBottom_0" departPos="5.10" departSpeed="0.00" departDelay="0.00" arrival="31.00" arrivalLane="middleBottom_to_leftBottom_0" arrivalPos="39.60" arrivalSpeed="14.83" duration="15.00" routeLength="88.50" waitingTime="0.00" waitingCount="0" stopTime="0.00" timeLoss="8.35" rerouteNo="0" devices="tripinfo_vehicles2.1" vType="DEFAULT_VEHTYPE" speedFactor="1.09" vaporized=""/>
    <tripinfo id="vehicles1.3" depart="15.00" departLane="leftBottom_to_middleBottom_0" departPos="5.10" departSpeed="0.00" departDelay="5.00" arrival="33.00" arrivalLane="middleBottom_to_rightBottom_0" arrivalPos="39.60" arrivalSpeed="11.85" duration="18.00" routeLength="88.50" waitingTime="1.00" waitingCount="1" stopTime="0.00" timeLoss="10.69" rerouteNo="0" devices="tripinfo_vehicles1.3" vType="DEFAULT_VEHTYPE" speedFactor="0.94" vaporized=""/>
    <tripinfo id="vehicles2.2" depart="19.00" departLane="rightBottom_to_middleBottom_0" departPos="5.10" departSpeed="0.00" departDelay="2.00" arrival="33.00" arrivalLane="middleBottom_to_leftBottom_0" arrivalPos="39.60" arrivalSpeed="13.24" duration="14.00" routeLength="88.50" waitingTime="0.00" waitingCount="0" stopTime="0.00" timeLoss="7.26" rerouteNo="0" devices="tripinfo_vehicles2.2" vType="DEFAULT_VEHTYPE" speedFactor="1.03" vaporized=""/>
    <tripinfo id="vehicles1.4" depart="18.00" departLane="leftBottom_to_middleBottom_0" departPos="5.10" departSpeed="0.00" departDelay="3.00" arrival="35.00" arrivalLane="middleBottom_to_rightBottom_0" arrivalPos="39.60" arrivalSpeed="11.52" duration="17.00" routeLength="88.50" waitingTime="1.00" waitingCount="1" stopTime="0.00" timeLoss="9.37" rerouteNo="0" devices="tripinfo_vehicles1.4" vType="DEFAULT_VEHTYPE" speedFactor="0.86" vaporized=""/>
    <tripinfo id="vehicles2.3" depart="22.00" departLane="rightBottom_to_middleBottom_0" departPos="5.10" departSpeed="0.00" departDelay="3.00" arrival="35.00" arrivalLane="middleBottom_to_leftBottom_0" arrivalPos="39.60" arrivalSpeed="15.50" duration="13.00" routeLength="88.50" waitingTime="0.00" waitingCount="0" stopTime="0.00" timeLoss="6.41" rerouteNo="0" devices="tripinfo_vehicles2.3" vType="DEFAULT_VEHTYPE" speedFactor="1.12" vaporized=""/>
    <tripinfo id="vehicles1.5" depart="21.00" departLane="leftBottom_to_middleBottom_0" departPos="5.10" departSpeed="0.00" departDelay="2.00" arrival="37.00" arrivalLane="middleBottom_to_rightBottom_0" arrivalPos="39.60" arrivalSpeed="13.97" duration="16.00" routeLength="88.50" waitingTime="0.00" waitingCount="0" stopTime="0.00" timeLoss="9.35" rerouteNo="0" devices="tripinfo_vehicles1.5" vType="DEFAULT_VEHTYPE" speedFactor="1.05" vaporized=""/>
    <tripinfo id="vehicles1.6" depart="24.00" departLane="leftBottom_to_middleBottom_0" departPos="5.10" departSpeed="0.00" departDelay="2.00" arrival="40.00" arrivalLane="middleBottom_to_rightBottom_0" arrivalPos="39.60" arrivalSpeed="12.75" duration="16.00" routeLength="88.50" waitingTime="0.00" waitingCount="0" stopTime="0.00" timeLoss="9.41" rerouteNo="0" devices="tripinfo_vehicles1.6" vType="DEFAULT_VEHTYPE" speedFactor="0.99" vaporized=""/>
    <tripinfo id="vehicles1.7" depart="29.00" departLane="leftBottom_to_middleBottom_0" departPos="5.10" departSpeed="0.00" departDelay="5.00" arrival="42.00" arrivalLane="middleBottom_to_rightBottom_0" arrivalPos="39.60" arrivalSpeed="12.20" duration="13.00" routeLength="88.50" waitingTime="0.00" waitingCount="0" stopTime="0.00" timeLoss="5.81" rerouteNo="0" devices="tripinfo_vehicles1.7" vType="DEFAULT_VEHTYPE" speedFactor="0.93" vaporized=""/>
    <tripinfo id="vehicles2.4" depart="31.00" departLane="rightBottom_to_middleBottom_0" departPos="5.10" departSpeed="0.00" departDelay="0.00" arrival="43.00" arrivalLane="middleBottom_to_leftBottom_0" arrivalPos="39.60" arrivalSpeed="15.02" duration="12.00" routeLength="88.50" waitingTime="0.00" waitingCount="0" stopTime="0.00" timeLoss="6.27" rerouteNo="0" devices="tripinfo_vehicles2.4" vType="DEFAULT_VEHTYPE" speedFactor="1.16" vaporized=""/>
    <tripinfo id="vehicles1.8" depart="33.00" departLane="leftBottom_to_middleBottom_0" departPos="5.10" departSpeed="0.00" departDelay="4.00" arrival="45.00" arrivalLane="middleBottom_to_rightBottom_0" arrivalPos="39.60" arrivalSpeed="11.91" duration="12.00" routeLength="88.50" waitingTime="0.00" waitingCount="0" stopTime="0.00" timeLoss="4.25" rerouteNo="0" devices="tripinfo_vehicles1.8" vType="DEFAULT_VEHTYPE" speedFactor="0.88" vaporized=""/>
    <tripinfo id="vehicles2.5" depart="34.00" departLane="rightBottom_to_middleBottom_0" departPos="5.10" departSpeed="0.00" departDelay="1.00" arrival="45.00" arrivalLane="middleBottom_to_leftBottom_0" arrivalPos="39.60" arrivalSpeed="13.57" duration="11.00" routeLength="88.50" waitingTime="0.00" waitingCount="0" stopTime="0.00" timeLoss="4.51" rerouteNo="0" devices="tripinfo_vehicles2.5" vType="DEFAULT_VEHTYPE" speedFactor="1.02" vaporized=""/>
    <tripinfo id="vehicles1.9" depart="36.00" departLane="leftBottom_to_middleBottom_0" departPos="5.10" departSpeed="0.00" departDelay="6.00" arrival="48.00" arrivalLane="middleBottom_to_rightBottom_0" arrivalPos="39.60" arrivalSpeed="12.98" duration="12.00" routeLength="88.50" waitingTime="0.00" waitingCount="0" stopTime="0.00" timeLoss="4.44" rerouteNo="0" devices="tripinfo_vehicles1.9" vType="DEFAULT_VEHTYPE" speedFactor="0.94" vaporized=""/>
    <tripinfo id="vehicles2.6" depart="37.00" departLane="rightBottom_to_middleBottom_0" departPos="5.10" departSpeed="0.00" departDelay="0.00" arrival="49.00" arrivalLane="middleBottom_to_leftBottom_0" arrivalPos="39.60" arrivalSpeed="11.36" duration="12.00" routeLength="88.50" waitingTime="0.00" waitingCount="0" stopTime="0.00" timeLoss="4.48" rerouteNo="0" devices="tripinfo_vehicles2.6" vType="DEFAULT_VEHTYPE" speedFactor="0.89" vaporized=""/>
    <tripinfo id="vehicles1.10" depart="39.00" departLane="leftBottom_to_middleBottom_0" departPos="5.10" departSpeed="0.00" departDelay="8.00" arrival="51.00" arrivalLane="middleBottom_to_rightBottom_0" arrivalPos="39.60" arrivalSpeed="11.85" duration="12.00" routeLength="88.50" waitingTime="0.00" waitingCount="0" stopTime="0.00" timeLoss="4.65" rerouteNo="0" devices="tripinfo_vehicles1.10" vType="DEFAULT_VEHTYPE" speedFactor="0.94" vaporized=""/>
    <tripinfo id="vehicles2.7" depart="40.00" departLane="rightBottom_to_middleBottom_0" departPos="5.10" departSpeed="0.00" departDelay="2.00" arrival="52.00" arrivalLane="middleBottom_to_leftBottom_0" arrivalPos="39.60" arrivalSpeed="10.88" duration="12.00" routeLength="88.50" waitingTime="0.00" waitingCount="0" stopTime="0.00" timeLoss="4.36" rerouteNo="0" devices="tripinfo_vehicles2.7" vType="DEFAULT_VEHTYPE" speedFactor="0.87" vaporized=""/>
    <tripinfo id="vehicles1.11" depart="42.00" departLane="leftBottom_to_middleBottom_0" departPos="5.10" departSpeed="0.00" departDelay="8.00" arrival="54.00" arrivalLane="middleBottom_to_rightBottom_0" arrivalPos="39.60" arrivalSpeed="12.82" duration="12.00" routeLength="88.50" waitingTime="0.00" waitingCount="0" stopTime="0.00" timeLoss="5.00" rerouteNo="0" devices="tripinfo_vehicles1.11" vType="DEFAULT_VEHTYPE" speedFactor="1.01" vaporized=""/>
    <tripinfo id="vehicles1.12" depart="45.00" departLane="leftBottom_to_middleBottom_0" departPos="5.10" departSpeed="0.00" departDelay="9.00" arrival="57.00" arrivalLane="middleBottom_to_rightBottom_0" arrivalPos="39.60" arrivalSpeed="12.94" duration="12.00" routeLength="88.50" waitingTime="0.00" waitingCount="0" stopTime="0.00" timeLoss="4.98" rerouteNo="0" devices="tripinfo_vehicles1.12" vType="DEFAULT_VEHTYPE" speedFactor="0.98" vaporized=""/>
    <tripinfo id="vehicles1.13" depart="48.00" departLane="leftBottom_to_middleBottom_0" departPos="5.10" departSpeed="0.00" departDelay="10.00" arrival="60.00" arrivalLane="middleBottom_to_rightBottom_0" arrivalPos="39.60" arrivalSpeed="10.41" duration="12.00" routeLength="88.50" waitingTime="0.00" waitingCount="0" stopTime="0.00" timeLoss="4.06" rerouteNo="0" devices="tripinfo_vehicles1.13" vType="DEFAULT_VEHTYPE" speedFactor="0.83" vaporized=""/>
    <tripinfo id="vehicles1.14" depart="51.00" departLane="leftBottom_to_middleBottom_0" departPos="5.10" departSpeed="0.00" departDelay="5.00" arrival="63.00" arrivalLane="middleBottom_to_rightBottom_0" arrivalPos="39.60" arrivalSpeed="12.24" duration="12.00" routeLength="88.50" waitingTime="0.00" waitingCount="0" stopTime="0.00" timeLoss="4.55" rerouteNo="0" devices="tripinfo_vehicles1.14" vType="DEFAULT_VEHTYPE" speedFactor="0.92" vaporized=""/>
    <tripinfo id="vehicles2.8" depart="54.00" departLane="rightBottom_to_middleBottom_0" departPos="5.10" departSpeed="0.00" departDelay="0.00" arrival="65.00" arrivalLane="middleBottom_to_leftBottom_0" arrivalPos="39.60" arrivalSpeed="14.69" duration="11.00" routeLength="88.50" waitingTime="0.00" waitingCount="0" stopTime="0.00" timeLoss="5.23" rerouteNo="0" devices="tripinfo_vehicles2.8" vType="DEFAULT_VEHTYPE" speedFactor="1.13" vaporized=""/>
    <tripinfo id="vehicles1.15" depart="54.00" departLane="leftBottom_to_middleBottom_0" departPos="5.10" departSpeed="0.00" departDelay="7.00" arrival="66.00" arrivalLane="middleBottom_to_rightBottom_0" arrivalPos="39.60" arrivalSpeed="12.30" duration="12.00" routeLength="88.50" waitingTime="0.00" waitingCount="0" stopTime="0.00" timeLoss="4.79" rerouteNo="0" devices="tripinfo_vehicles1.15" vType="DEFAULT_VEHTYPE" speedFactor="0.95" vaporized=""/>
    <tripinfo id="vehicles2.9" depart="57.00" departLane="rightBottom_to_middleBottom_0" departPos="5.10" departSpeed="0.00" departDelay="0.00" arrival="69.00" arrivalLane="middleBottom_to_leftBottom_0" arrivalPos="39.60" arrivalSpeed="12.50" duration="12.00" routeLength="88.50" waitingTime="0.00" waitingCount="0" stopTime="0.00" timeLoss="4.69" rerouteNo="0" devices="tripinfo_vehicles2.9" vType="DEFAULT_VEHTYPE" speedFactor="0.93" vaporized=""/>
    <tripinfo id="vehicles2.10" depart="60.00" departLane="rightBottom_to_middleBottom_0" departPos="5.10" departSpeed="0.00" departDelay="2.00" arrival="72.00" arrivalLane="middleBottom_to_leftBottom_0" arrivalPos="39.60" arrivalSpeed="16.14" duration="12.00" routeLength="88.50" waitingTime="0.00" waitingCount="0" stopTime="0.00" timeLoss="5.69" rerouteNo="0" devices="tripinfo_vehicles2.10" vType="DEFAULT_VEHTYPE" speedFactor="1.18" vaporized=""/>
    <tripinfo id="vehicles2.11" depart="63.00" departLane="rightBottom_to_middleBottom_0" departPos="5.10" departSpeed="0.00" departDelay="3.00" arrival="74.00" arrivalLane="middleBottom_to_leftBottom_0" arrivalPos="39.60" arrivalSpeed="15.71" duration="11.00" routeLength="88.50" waitingTime="0.00" waitingCount="0" stopTime="0.00" timeLoss="5.36" rerouteNo="0" devices="tripinfo_vehicles2.11" vType="DEFAULT_VEHTYPE" speedFactor="1.15" vaporized=""/>
    <tripinfo id="vehicles1.16" depart="63.00" departLane="leftBottom_to_middleBottom_0" departPos="5.10" departSpeed="0.00" departDelay="0.00" arrival="75.00" arrivalLane="middleBottom_to_rightBottom_0" arrivalPos="39.60" arrivalSpeed="13.15" duration="12.00" routeLength="88.50" waitingTime="0.00" waitingCount="0" stopTime="0.00" timeLoss="5.06" rerouteNo="0" devices="tripinfo_vehicles1.16" vType="DEFAULT_VEHTYPE" speedFactor="1.01" vaporized=""/>
    <tripinfo id="vehicles2.12" depart="68.00" departLane="rightBottom_to_middleBottom_0" departPos="5.10" departSpeed="0.00" departDelay="0.00" arrival="80.00" arrivalLane="middleBottom_to_leftBottom_0" arrivalPos="39.60" arrivalSpeed="15.16" duration="12.00" routeLength="88.50" waitingTime="0.00" waitingCount="0" stopTime="0.00" timeLoss="5.97" rerouteNo="0" devices="tripinfo_vehicles2.12" vType="DEFAULT_VEHTYPE" speedFactor="1.17" vaporized=""/>
    <tripinfo id="vehicles2.13" depart="71.00" departLane="rightBottom_to_middleBottom_0" departPos="5.10" departSpeed="0.00" departDelay="0.00" arrival="83.00" arrivalLane="middleBottom_to_leftBottom_0" arrivalPos="39.60" arrivalSpeed="13.54" duration="12.00" routeLength="88.50" waitingTime="0.00" waitingCount="0" stopTime="0.00" timeLoss="4.85" rerouteNo="0" devices="tripinfo_vehicles2.13" vType="DEFAULT_VEHTYPE" speedFactor="0.99" vaporized=""/>
    <tripinfo id="vehicles1.17" depart="74.00" departLane="leftBottom_to_middleBottom_0" departPos="5.10" departSpeed="0.00" departDelay="0.00" arrival="86.00" arrivalLane="middleBottom_to_rightBottom_0" arrivalPos="39.60" arrivalSpeed="13.04" duration="12.00" routeLength="88.50" waitingTime="0.00" waitingCount="0" stopTime="0.00" timeLoss="5.31" rerouteNo="0" devices="tripinfo_vehicles1.17" vType="DEFAULT_VEHTYPE" speedFactor="1.02" vaporized=""/>
    <tripinfo id="vehicles2.14" depart="76.00" departLane="rightBottom_to_middleBottom_0" departPos="5.10" departSpeed="0.00" departDelay="0.00" arrival="87.00" arrivalLane="middleBottom_to_leftBottom_0" arrivalPos="39.60" arrivalSpeed="12.70" duration="11.00" routeLength="88.50" waitingTime="0.00" waitingCount="0" stopTime="0.00" timeLoss="4.27" rerouteNo="0" devices="tripinfo_vehicles2.14" vType="DEFAULT_VEHTYPE" speedFactor="0.97" vaporized=""/>
</tripinfos>
