<?xml version="1.0" encoding="UTF-8"?>

<!-- generated on Fri 08 Nov 2019 15:01:55 CET by Eclipse SUMO GUI Version v1_3_1+0792-a0da2ffa4d
<configuration xmlns:xsi="http://www.w3.org/2001/XMLSchema-instance" xsi:noNamespaceSchemaLocation="http://sumo.dlr.de/xsd/sumoConfiguration.xsd">

    <input>
        <net-file value="network.net.xml"/>
        <route-files value="network.rou.xml"/>
    </input>

    <output>
        <tripinfo-output value="tripinfo.xml"/>
    </output>

    <time>
        <begin value="0"/>
        <end value="50"/>
    </time>

    <processing>
        <collision.check-junctions value="true"/>
    </processing>

    <traci_server>
        <remote-port value="57953"/>
    </traci_server>

    <gui_only>
        <gui-settings-file value="network.settings.xml"/>
    </gui_only>

</configuration>
-->

<tripinfos xmlns:xsi="http://www.w3.org/2001/XMLSchema-instance" xsi:noNamespaceSchemaLocation="http://sumo.dlr.de/xsd/tripinfo_file.xsd">
    <tripinfo id="veh2" depart="0.00" departLane="rightBottom_to_middleBottom_0" departPos="5.10" departSpeed="0.00" departDelay="0.00" arrival="16.00" arrivalLane="middleBottom_to_leftBottom_0" arrivalPos="39.60" arrivalSpeed="10.86" duration="16.00" routeLength="88.50" waitingTime="0.00" waitingCount="0" stopTime="0.00" timeLoss="9.26" rerouteNo="0" devices="tripinfo_veh2" vType="fast" speedFactor="1.01" vaporized=""/>
</tripinfos>
